SPECGRID
64	64	1	1	F	
/
COORD
0.0	0.0	500.0	0.0	0.0	510.0	
100.0	0.0	500.0	100.0	0.0	510.0	
200.0	0.0	500.0	200.0	0.0	510.0	
300.0	0.0	500.0	300.0	0.0	510.0	
400.0	0.0	500.0	400.0	0.0	510.0	
500.0	0.0	500.0	500.0	0.0	510.0	
600.0	0.0	500.0	600.0	0.0	510.0	
700.0	0.0	500.0	700.0	0.0	510.0	
800.0	0.0	500.0	800.0	0.0	510.0	
900.0	0.0	500.0	900.0	0.0	510.0	
1000.0	0.0	500.0	1000.0	0.0	510.0	
1100.0	0.0	500.0	1100.0	0.0	510.0	
1200.0	0.0	500.0	1200.0	0.0	510.0	
1300.0	0.0	500.0	1300.0	0.0	510.0	
1400.0	0.0	500.0	1400.0	0.0	510.0	
1500.0	0.0	500.0	1500.0	0.0	510.0	
1600.0	0.0	500.0	1600.0	0.0	510.0	
1700.0	0.0	500.0	1700.0	0.0	510.0	
1800.0	0.0	500.0	1800.0	0.0	510.0	
1900.0	0.0	500.0	1900.0	0.0	510.0	
2000.0	0.0	500.0	2000.0	0.0	510.0	
2100.0	0.0	500.0	2100.0	0.0	510.0	
2200.0	0.0	500.0	2200.0	0.0	510.0	
2300.0	0.0	500.0	2300.0	0.0	510.0	
2400.0	0.0	500.0	2400.0	0.0	510.0	
2500.0	0.0	500.0	2500.0	0.0	510.0	
2600.0	0.0	500.0	2600.0	0.0	510.0	
2700.0	0.0	500.0	2700.0	0.0	510.0	
2800.0	0.0	500.0	2800.0	0.0	510.0	
2900.0	0.0	500.0	2900.0	0.0	510.0	
3000.0	0.0	500.0	3000.0	0.0	510.0	
3100.0	0.0	500.0	3100.0	0.0	510.0	
3200.0	0.0	500.0	3200.0	0.0	510.0	
3300.0	0.0	500.0	3300.0	0.0	510.0	
3400.0	0.0	500.0	3400.0	0.0	510.0	
3500.0	0.0	500.0	3500.0	0.0	510.0	
3600.0	0.0	500.0	3600.0	0.0	510.0	
3700.0	0.0	500.0	3700.0	0.0	510.0	
3800.0	0.0	500.0	3800.0	0.0	510.0	
3900.0	0.0	500.0	3900.0	0.0	510.0	
4000.0	0.0	500.0	4000.0	0.0	510.0	
4100.0	0.0	500.0	4100.0	0.0	510.0	
4200.0	0.0	500.0	4200.0	0.0	510.0	
4300.0	0.0	500.0	4300.0	0.0	510.0	
4400.0	0.0	500.0	4400.0	0.0	510.0	
4500.0	0.0	500.0	4500.0	0.0	510.0	
4600.0	0.0	500.0	4600.0	0.0	510.0	
4700.0	0.0	500.0	4700.0	0.0	510.0	
4800.0	0.0	500.0	4800.0	0.0	510.0	
4900.0	0.0	500.0	4900.0	0.0	510.0	
5000.0	0.0	500.0	5000.0	0.0	510.0	
5100.0	0.0	500.0	5100.0	0.0	510.0	
5200.0	0.0	500.0	5200.0	0.0	510.0	
5300.0	0.0	500.0	5300.0	0.0	510.0	
5400.0	0.0	500.0	5400.0	0.0	510.0	
5500.0	0.0	500.0	5500.0	0.0	510.0	
5600.0	0.0	500.0	5600.0	0.0	510.0	
5700.0	0.0	500.0	5700.0	0.0	510.0	
5800.0	0.0	500.0	5800.0	0.0	510.0	
5900.0	0.0	500.0	5900.0	0.0	510.0	
6000.0	0.0	500.0	6000.0	0.0	510.0	
6100.0	0.0	500.0	6100.0	0.0	510.0	
6200.0	0.0	500.0	6200.0	0.0	510.0	
6300.0	0.0	500.0	6300.0	0.0	510.0	
6400.0	0.0	500.0	6400.0	0.0	510.0	
0.0	100.0	500.0	0.0	100.0	510.0	
100.0	100.0	500.0	100.0	100.0	510.0	
200.0	100.0	500.0	200.0	100.0	510.0	
300.0	100.0	500.0	300.0	100.0	510.0	
400.0	100.0	500.0	400.0	100.0	510.0	
500.0	100.0	500.0	500.0	100.0	510.0	
600.0	100.0	500.0	600.0	100.0	510.0	
700.0	100.0	500.0	700.0	100.0	510.0	
800.0	100.0	500.0	800.0	100.0	510.0	
900.0	100.0	500.0	900.0	100.0	510.0	
1000.0	100.0	500.0	1000.0	100.0	510.0	
1100.0	100.0	500.0	1100.0	100.0	510.0	
1200.0	100.0	500.0	1200.0	100.0	510.0	
1300.0	100.0	500.0	1300.0	100.0	510.0	
1400.0	100.0	500.0	1400.0	100.0	510.0	
1500.0	100.0	500.0	1500.0	100.0	510.0	
1600.0	100.0	500.0	1600.0	100.0	510.0	
1700.0	100.0	500.0	1700.0	100.0	510.0	
1800.0	100.0	500.0	1800.0	100.0	510.0	
1900.0	100.0	500.0	1900.0	100.0	510.0	
2000.0	100.0	500.0	2000.0	100.0	510.0	
2100.0	100.0	500.0	2100.0	100.0	510.0	
2200.0	100.0	500.0	2200.0	100.0	510.0	
2300.0	100.0	500.0	2300.0	100.0	510.0	
2400.0	100.0	500.0	2400.0	100.0	510.0	
2500.0	100.0	500.0	2500.0	100.0	510.0	
2600.0	100.0	500.0	2600.0	100.0	510.0	
2700.0	100.0	500.0	2700.0	100.0	510.0	
2800.0	100.0	500.0	2800.0	100.0	510.0	
2900.0	100.0	500.0	2900.0	100.0	510.0	
3000.0	100.0	500.0	3000.0	100.0	510.0	
3100.0	100.0	500.0	3100.0	100.0	510.0	
3200.0	100.0	500.0	3200.0	100.0	510.0	
3300.0	100.0	500.0	3300.0	100.0	510.0	
3400.0	100.0	500.0	3400.0	100.0	510.0	
3500.0	100.0	500.0	3500.0	100.0	510.0	
3600.0	100.0	500.0	3600.0	100.0	510.0	
3700.0	100.0	500.0	3700.0	100.0	510.0	
3800.0	100.0	500.0	3800.0	100.0	510.0	
3900.0	100.0	500.0	3900.0	100.0	510.0	
4000.0	100.0	500.0	4000.0	100.0	510.0	
4100.0	100.0	500.0	4100.0	100.0	510.0	
4200.0	100.0	500.0	4200.0	100.0	510.0	
4300.0	100.0	500.0	4300.0	100.0	510.0	
4400.0	100.0	500.0	4400.0	100.0	510.0	
4500.0	100.0	500.0	4500.0	100.0	510.0	
4600.0	100.0	500.0	4600.0	100.0	510.0	
4700.0	100.0	500.0	4700.0	100.0	510.0	
4800.0	100.0	500.0	4800.0	100.0	510.0	
4900.0	100.0	500.0	4900.0	100.0	510.0	
5000.0	100.0	500.0	5000.0	100.0	510.0	
5100.0	100.0	500.0	5100.0	100.0	510.0	
5200.0	100.0	500.0	5200.0	100.0	510.0	
5300.0	100.0	500.0	5300.0	100.0	510.0	
5400.0	100.0	500.0	5400.0	100.0	510.0	
5500.0	100.0	500.0	5500.0	100.0	510.0	
5600.0	100.0	500.0	5600.0	100.0	510.0	
5700.0	100.0	500.0	5700.0	100.0	510.0	
5800.0	100.0	500.0	5800.0	100.0	510.0	
5900.0	100.0	500.0	5900.0	100.0	510.0	
6000.0	100.0	500.0	6000.0	100.0	510.0	
6100.0	100.0	500.0	6100.0	100.0	510.0	
6200.0	100.0	500.0	6200.0	100.0	510.0	
6300.0	100.0	500.0	6300.0	100.0	510.0	
6400.0	100.0	500.0	6400.0	100.0	510.0	
0.0	200.0	500.0	0.0	200.0	510.0	
100.0	200.0	500.0	100.0	200.0	510.0	
200.0	200.0	500.0	200.0	200.0	510.0	
300.0	200.0	500.0	300.0	200.0	510.0	
400.0	200.0	500.0	400.0	200.0	510.0	
500.0	200.0	500.0	500.0	200.0	510.0	
600.0	200.0	500.0	600.0	200.0	510.0	
700.0	200.0	500.0	700.0	200.0	510.0	
800.0	200.0	500.0	800.0	200.0	510.0	
900.0	200.0	500.0	900.0	200.0	510.0	
1000.0	200.0	500.0	1000.0	200.0	510.0	
1100.0	200.0	500.0	1100.0	200.0	510.0	
1200.0	200.0	500.0	1200.0	200.0	510.0	
1300.0	200.0	500.0	1300.0	200.0	510.0	
1400.0	200.0	500.0	1400.0	200.0	510.0	
1500.0	200.0	500.0	1500.0	200.0	510.0	
1600.0	200.0	500.0	1600.0	200.0	510.0	
1700.0	200.0	500.0	1700.0	200.0	510.0	
1800.0	200.0	500.0	1800.0	200.0	510.0	
1900.0	200.0	500.0	1900.0	200.0	510.0	
2000.0	200.0	500.0	2000.0	200.0	510.0	
2100.0	200.0	500.0	2100.0	200.0	510.0	
2200.0	200.0	500.0	2200.0	200.0	510.0	
2300.0	200.0	500.0	2300.0	200.0	510.0	
2400.0	200.0	500.0	2400.0	200.0	510.0	
2500.0	200.0	500.0	2500.0	200.0	510.0	
2600.0	200.0	500.0	2600.0	200.0	510.0	
2700.0	200.0	500.0	2700.0	200.0	510.0	
2800.0	200.0	500.0	2800.0	200.0	510.0	
2900.0	200.0	500.0	2900.0	200.0	510.0	
3000.0	200.0	500.0	3000.0	200.0	510.0	
3100.0	200.0	500.0	3100.0	200.0	510.0	
3200.0	200.0	500.0	3200.0	200.0	510.0	
3300.0	200.0	500.0	3300.0	200.0	510.0	
3400.0	200.0	500.0	3400.0	200.0	510.0	
3500.0	200.0	500.0	3500.0	200.0	510.0	
3600.0	200.0	500.0	3600.0	200.0	510.0	
3700.0	200.0	500.0	3700.0	200.0	510.0	
3800.0	200.0	500.0	3800.0	200.0	510.0	
3900.0	200.0	500.0	3900.0	200.0	510.0	
4000.0	200.0	500.0	4000.0	200.0	510.0	
4100.0	200.0	500.0	4100.0	200.0	510.0	
4200.0	200.0	500.0	4200.0	200.0	510.0	
4300.0	200.0	500.0	4300.0	200.0	510.0	
4400.0	200.0	500.0	4400.0	200.0	510.0	
4500.0	200.0	500.0	4500.0	200.0	510.0	
4600.0	200.0	500.0	4600.0	200.0	510.0	
4700.0	200.0	500.0	4700.0	200.0	510.0	
4800.0	200.0	500.0	4800.0	200.0	510.0	
4900.0	200.0	500.0	4900.0	200.0	510.0	
5000.0	200.0	500.0	5000.0	200.0	510.0	
5100.0	200.0	500.0	5100.0	200.0	510.0	
5200.0	200.0	500.0	5200.0	200.0	510.0	
5300.0	200.0	500.0	5300.0	200.0	510.0	
5400.0	200.0	500.0	5400.0	200.0	510.0	
5500.0	200.0	500.0	5500.0	200.0	510.0	
5600.0	200.0	500.0	5600.0	200.0	510.0	
5700.0	200.0	500.0	5700.0	200.0	510.0	
5800.0	200.0	500.0	5800.0	200.0	510.0	
5900.0	200.0	500.0	5900.0	200.0	510.0	
6000.0	200.0	500.0	6000.0	200.0	510.0	
6100.0	200.0	500.0	6100.0	200.0	510.0	
6200.0	200.0	500.0	6200.0	200.0	510.0	
6300.0	200.0	500.0	6300.0	200.0	510.0	
6400.0	200.0	500.0	6400.0	200.0	510.0	
0.0	300.0	500.0	0.0	300.0	510.0	
100.0	300.0	500.0	100.0	300.0	510.0	
200.0	300.0	500.0	200.0	300.0	510.0	
300.0	300.0	500.0	300.0	300.0	510.0	
400.0	300.0	500.0	400.0	300.0	510.0	
500.0	300.0	500.0	500.0	300.0	510.0	
600.0	300.0	500.0	600.0	300.0	510.0	
700.0	300.0	500.0	700.0	300.0	510.0	
800.0	300.0	500.0	800.0	300.0	510.0	
900.0	300.0	500.0	900.0	300.0	510.0	
1000.0	300.0	500.0	1000.0	300.0	510.0	
1100.0	300.0	500.0	1100.0	300.0	510.0	
1200.0	300.0	500.0	1200.0	300.0	510.0	
1300.0	300.0	500.0	1300.0	300.0	510.0	
1400.0	300.0	500.0	1400.0	300.0	510.0	
1500.0	300.0	500.0	1500.0	300.0	510.0	
1600.0	300.0	500.0	1600.0	300.0	510.0	
1700.0	300.0	500.0	1700.0	300.0	510.0	
1800.0	300.0	500.0	1800.0	300.0	510.0	
1900.0	300.0	500.0	1900.0	300.0	510.0	
2000.0	300.0	500.0	2000.0	300.0	510.0	
2100.0	300.0	500.0	2100.0	300.0	510.0	
2200.0	300.0	500.0	2200.0	300.0	510.0	
2300.0	300.0	500.0	2300.0	300.0	510.0	
2400.0	300.0	500.0	2400.0	300.0	510.0	
2500.0	300.0	500.0	2500.0	300.0	510.0	
2600.0	300.0	500.0	2600.0	300.0	510.0	
2700.0	300.0	500.0	2700.0	300.0	510.0	
2800.0	300.0	500.0	2800.0	300.0	510.0	
2900.0	300.0	500.0	2900.0	300.0	510.0	
3000.0	300.0	500.0	3000.0	300.0	510.0	
3100.0	300.0	500.0	3100.0	300.0	510.0	
3200.0	300.0	500.0	3200.0	300.0	510.0	
3300.0	300.0	500.0	3300.0	300.0	510.0	
3400.0	300.0	500.0	3400.0	300.0	510.0	
3500.0	300.0	500.0	3500.0	300.0	510.0	
3600.0	300.0	500.0	3600.0	300.0	510.0	
3700.0	300.0	500.0	3700.0	300.0	510.0	
3800.0	300.0	500.0	3800.0	300.0	510.0	
3900.0	300.0	500.0	3900.0	300.0	510.0	
4000.0	300.0	500.0	4000.0	300.0	510.0	
4100.0	300.0	500.0	4100.0	300.0	510.0	
4200.0	300.0	500.0	4200.0	300.0	510.0	
4300.0	300.0	500.0	4300.0	300.0	510.0	
4400.0	300.0	500.0	4400.0	300.0	510.0	
4500.0	300.0	500.0	4500.0	300.0	510.0	
4600.0	300.0	500.0	4600.0	300.0	510.0	
4700.0	300.0	500.0	4700.0	300.0	510.0	
4800.0	300.0	500.0	4800.0	300.0	510.0	
4900.0	300.0	500.0	4900.0	300.0	510.0	
5000.0	300.0	500.0	5000.0	300.0	510.0	
5100.0	300.0	500.0	5100.0	300.0	510.0	
5200.0	300.0	500.0	5200.0	300.0	510.0	
5300.0	300.0	500.0	5300.0	300.0	510.0	
5400.0	300.0	500.0	5400.0	300.0	510.0	
5500.0	300.0	500.0	5500.0	300.0	510.0	
5600.0	300.0	500.0	5600.0	300.0	510.0	
5700.0	300.0	500.0	5700.0	300.0	510.0	
5800.0	300.0	500.0	5800.0	300.0	510.0	
5900.0	300.0	500.0	5900.0	300.0	510.0	
6000.0	300.0	500.0	6000.0	300.0	510.0	
6100.0	300.0	500.0	6100.0	300.0	510.0	
6200.0	300.0	500.0	6200.0	300.0	510.0	
6300.0	300.0	500.0	6300.0	300.0	510.0	
6400.0	300.0	500.0	6400.0	300.0	510.0	
0.0	400.0	500.0	0.0	400.0	510.0	
100.0	400.0	500.0	100.0	400.0	510.0	
200.0	400.0	500.0	200.0	400.0	510.0	
300.0	400.0	500.0	300.0	400.0	510.0	
400.0	400.0	500.0	400.0	400.0	510.0	
500.0	400.0	500.0	500.0	400.0	510.0	
600.0	400.0	500.0	600.0	400.0	510.0	
700.0	400.0	500.0	700.0	400.0	510.0	
800.0	400.0	500.0	800.0	400.0	510.0	
900.0	400.0	500.0	900.0	400.0	510.0	
1000.0	400.0	500.0	1000.0	400.0	510.0	
1100.0	400.0	500.0	1100.0	400.0	510.0	
1200.0	400.0	500.0	1200.0	400.0	510.0	
1300.0	400.0	500.0	1300.0	400.0	510.0	
1400.0	400.0	500.0	1400.0	400.0	510.0	
1500.0	400.0	500.0	1500.0	400.0	510.0	
1600.0	400.0	500.0	1600.0	400.0	510.0	
1700.0	400.0	500.0	1700.0	400.0	510.0	
1800.0	400.0	500.0	1800.0	400.0	510.0	
1900.0	400.0	500.0	1900.0	400.0	510.0	
2000.0	400.0	500.0	2000.0	400.0	510.0	
2100.0	400.0	500.0	2100.0	400.0	510.0	
2200.0	400.0	500.0	2200.0	400.0	510.0	
2300.0	400.0	500.0	2300.0	400.0	510.0	
2400.0	400.0	500.0	2400.0	400.0	510.0	
2500.0	400.0	500.0	2500.0	400.0	510.0	
2600.0	400.0	500.0	2600.0	400.0	510.0	
2700.0	400.0	500.0	2700.0	400.0	510.0	
2800.0	400.0	500.0	2800.0	400.0	510.0	
2900.0	400.0	500.0	2900.0	400.0	510.0	
3000.0	400.0	500.0	3000.0	400.0	510.0	
3100.0	400.0	500.0	3100.0	400.0	510.0	
3200.0	400.0	500.0	3200.0	400.0	510.0	
3300.0	400.0	500.0	3300.0	400.0	510.0	
3400.0	400.0	500.0	3400.0	400.0	510.0	
3500.0	400.0	500.0	3500.0	400.0	510.0	
3600.0	400.0	500.0	3600.0	400.0	510.0	
3700.0	400.0	500.0	3700.0	400.0	510.0	
3800.0	400.0	500.0	3800.0	400.0	510.0	
3900.0	400.0	500.0	3900.0	400.0	510.0	
4000.0	400.0	500.0	4000.0	400.0	510.0	
4100.0	400.0	500.0	4100.0	400.0	510.0	
4200.0	400.0	500.0	4200.0	400.0	510.0	
4300.0	400.0	500.0	4300.0	400.0	510.0	
4400.0	400.0	500.0	4400.0	400.0	510.0	
4500.0	400.0	500.0	4500.0	400.0	510.0	
4600.0	400.0	500.0	4600.0	400.0	510.0	
4700.0	400.0	500.0	4700.0	400.0	510.0	
4800.0	400.0	500.0	4800.0	400.0	510.0	
4900.0	400.0	500.0	4900.0	400.0	510.0	
5000.0	400.0	500.0	5000.0	400.0	510.0	
5100.0	400.0	500.0	5100.0	400.0	510.0	
5200.0	400.0	500.0	5200.0	400.0	510.0	
5300.0	400.0	500.0	5300.0	400.0	510.0	
5400.0	400.0	500.0	5400.0	400.0	510.0	
5500.0	400.0	500.0	5500.0	400.0	510.0	
5600.0	400.0	500.0	5600.0	400.0	510.0	
5700.0	400.0	500.0	5700.0	400.0	510.0	
5800.0	400.0	500.0	5800.0	400.0	510.0	
5900.0	400.0	500.0	5900.0	400.0	510.0	
6000.0	400.0	500.0	6000.0	400.0	510.0	
6100.0	400.0	500.0	6100.0	400.0	510.0	
6200.0	400.0	500.0	6200.0	400.0	510.0	
6300.0	400.0	500.0	6300.0	400.0	510.0	
6400.0	400.0	500.0	6400.0	400.0	510.0	
0.0	500.0	500.0	0.0	500.0	510.0	
100.0	500.0	500.0	100.0	500.0	510.0	
200.0	500.0	500.0	200.0	500.0	510.0	
300.0	500.0	500.0	300.0	500.0	510.0	
400.0	500.0	500.0	400.0	500.0	510.0	
500.0	500.0	500.0	500.0	500.0	510.0	
600.0	500.0	500.0	600.0	500.0	510.0	
700.0	500.0	500.0	700.0	500.0	510.0	
800.0	500.0	500.0	800.0	500.0	510.0	
900.0	500.0	500.0	900.0	500.0	510.0	
1000.0	500.0	500.0	1000.0	500.0	510.0	
1100.0	500.0	500.0	1100.0	500.0	510.0	
1200.0	500.0	500.0	1200.0	500.0	510.0	
1300.0	500.0	500.0	1300.0	500.0	510.0	
1400.0	500.0	500.0	1400.0	500.0	510.0	
1500.0	500.0	500.0	1500.0	500.0	510.0	
1600.0	500.0	500.0	1600.0	500.0	510.0	
1700.0	500.0	500.0	1700.0	500.0	510.0	
1800.0	500.0	500.0	1800.0	500.0	510.0	
1900.0	500.0	500.0	1900.0	500.0	510.0	
2000.0	500.0	500.0	2000.0	500.0	510.0	
2100.0	500.0	500.0	2100.0	500.0	510.0	
2200.0	500.0	500.0	2200.0	500.0	510.0	
2300.0	500.0	500.0	2300.0	500.0	510.0	
2400.0	500.0	500.0	2400.0	500.0	510.0	
2500.0	500.0	500.0	2500.0	500.0	510.0	
2600.0	500.0	500.0	2600.0	500.0	510.0	
2700.0	500.0	500.0	2700.0	500.0	510.0	
2800.0	500.0	500.0	2800.0	500.0	510.0	
2900.0	500.0	500.0	2900.0	500.0	510.0	
3000.0	500.0	500.0	3000.0	500.0	510.0	
3100.0	500.0	500.0	3100.0	500.0	510.0	
3200.0	500.0	500.0	3200.0	500.0	510.0	
3300.0	500.0	500.0	3300.0	500.0	510.0	
3400.0	500.0	500.0	3400.0	500.0	510.0	
3500.0	500.0	500.0	3500.0	500.0	510.0	
3600.0	500.0	500.0	3600.0	500.0	510.0	
3700.0	500.0	500.0	3700.0	500.0	510.0	
3800.0	500.0	500.0	3800.0	500.0	510.0	
3900.0	500.0	500.0	3900.0	500.0	510.0	
4000.0	500.0	500.0	4000.0	500.0	510.0	
4100.0	500.0	500.0	4100.0	500.0	510.0	
4200.0	500.0	500.0	4200.0	500.0	510.0	
4300.0	500.0	500.0	4300.0	500.0	510.0	
4400.0	500.0	500.0	4400.0	500.0	510.0	
4500.0	500.0	500.0	4500.0	500.0	510.0	
4600.0	500.0	500.0	4600.0	500.0	510.0	
4700.0	500.0	500.0	4700.0	500.0	510.0	
4800.0	500.0	500.0	4800.0	500.0	510.0	
4900.0	500.0	500.0	4900.0	500.0	510.0	
5000.0	500.0	500.0	5000.0	500.0	510.0	
5100.0	500.0	500.0	5100.0	500.0	510.0	
5200.0	500.0	500.0	5200.0	500.0	510.0	
5300.0	500.0	500.0	5300.0	500.0	510.0	
5400.0	500.0	500.0	5400.0	500.0	510.0	
5500.0	500.0	500.0	5500.0	500.0	510.0	
5600.0	500.0	500.0	5600.0	500.0	510.0	
5700.0	500.0	500.0	5700.0	500.0	510.0	
5800.0	500.0	500.0	5800.0	500.0	510.0	
5900.0	500.0	500.0	5900.0	500.0	510.0	
6000.0	500.0	500.0	6000.0	500.0	510.0	
6100.0	500.0	500.0	6100.0	500.0	510.0	
6200.0	500.0	500.0	6200.0	500.0	510.0	
6300.0	500.0	500.0	6300.0	500.0	510.0	
6400.0	500.0	500.0	6400.0	500.0	510.0	
0.0	600.0	500.0	0.0	600.0	510.0	
100.0	600.0	500.0	100.0	600.0	510.0	
200.0	600.0	500.0	200.0	600.0	510.0	
300.0	600.0	500.0	300.0	600.0	510.0	
400.0	600.0	500.0	400.0	600.0	510.0	
500.0	600.0	500.0	500.0	600.0	510.0	
600.0	600.0	500.0	600.0	600.0	510.0	
700.0	600.0	500.0	700.0	600.0	510.0	
800.0	600.0	500.0	800.0	600.0	510.0	
900.0	600.0	500.0	900.0	600.0	510.0	
1000.0	600.0	500.0	1000.0	600.0	510.0	
1100.0	600.0	500.0	1100.0	600.0	510.0	
1200.0	600.0	500.0	1200.0	600.0	510.0	
1300.0	600.0	500.0	1300.0	600.0	510.0	
1400.0	600.0	500.0	1400.0	600.0	510.0	
1500.0	600.0	500.0	1500.0	600.0	510.0	
1600.0	600.0	500.0	1600.0	600.0	510.0	
1700.0	600.0	500.0	1700.0	600.0	510.0	
1800.0	600.0	500.0	1800.0	600.0	510.0	
1900.0	600.0	500.0	1900.0	600.0	510.0	
2000.0	600.0	500.0	2000.0	600.0	510.0	
2100.0	600.0	500.0	2100.0	600.0	510.0	
2200.0	600.0	500.0	2200.0	600.0	510.0	
2300.0	600.0	500.0	2300.0	600.0	510.0	
2400.0	600.0	500.0	2400.0	600.0	510.0	
2500.0	600.0	500.0	2500.0	600.0	510.0	
2600.0	600.0	500.0	2600.0	600.0	510.0	
2700.0	600.0	500.0	2700.0	600.0	510.0	
2800.0	600.0	500.0	2800.0	600.0	510.0	
2900.0	600.0	500.0	2900.0	600.0	510.0	
3000.0	600.0	500.0	3000.0	600.0	510.0	
3100.0	600.0	500.0	3100.0	600.0	510.0	
3200.0	600.0	500.0	3200.0	600.0	510.0	
3300.0	600.0	500.0	3300.0	600.0	510.0	
3400.0	600.0	500.0	3400.0	600.0	510.0	
3500.0	600.0	500.0	3500.0	600.0	510.0	
3600.0	600.0	500.0	3600.0	600.0	510.0	
3700.0	600.0	500.0	3700.0	600.0	510.0	
3800.0	600.0	500.0	3800.0	600.0	510.0	
3900.0	600.0	500.0	3900.0	600.0	510.0	
4000.0	600.0	500.0	4000.0	600.0	510.0	
4100.0	600.0	500.0	4100.0	600.0	510.0	
4200.0	600.0	500.0	4200.0	600.0	510.0	
4300.0	600.0	500.0	4300.0	600.0	510.0	
4400.0	600.0	500.0	4400.0	600.0	510.0	
4500.0	600.0	500.0	4500.0	600.0	510.0	
4600.0	600.0	500.0	4600.0	600.0	510.0	
4700.0	600.0	500.0	4700.0	600.0	510.0	
4800.0	600.0	500.0	4800.0	600.0	510.0	
4900.0	600.0	500.0	4900.0	600.0	510.0	
5000.0	600.0	500.0	5000.0	600.0	510.0	
5100.0	600.0	500.0	5100.0	600.0	510.0	
5200.0	600.0	500.0	5200.0	600.0	510.0	
5300.0	600.0	500.0	5300.0	600.0	510.0	
5400.0	600.0	500.0	5400.0	600.0	510.0	
5500.0	600.0	500.0	5500.0	600.0	510.0	
5600.0	600.0	500.0	5600.0	600.0	510.0	
5700.0	600.0	500.0	5700.0	600.0	510.0	
5800.0	600.0	500.0	5800.0	600.0	510.0	
5900.0	600.0	500.0	5900.0	600.0	510.0	
6000.0	600.0	500.0	6000.0	600.0	510.0	
6100.0	600.0	500.0	6100.0	600.0	510.0	
6200.0	600.0	500.0	6200.0	600.0	510.0	
6300.0	600.0	500.0	6300.0	600.0	510.0	
6400.0	600.0	500.0	6400.0	600.0	510.0	
0.0	700.0	500.0	0.0	700.0	510.0	
100.0	700.0	500.0	100.0	700.0	510.0	
200.0	700.0	500.0	200.0	700.0	510.0	
300.0	700.0	500.0	300.0	700.0	510.0	
400.0	700.0	500.0	400.0	700.0	510.0	
500.0	700.0	500.0	500.0	700.0	510.0	
600.0	700.0	500.0	600.0	700.0	510.0	
700.0	700.0	500.0	700.0	700.0	510.0	
800.0	700.0	500.0	800.0	700.0	510.0	
900.0	700.0	500.0	900.0	700.0	510.0	
1000.0	700.0	500.0	1000.0	700.0	510.0	
1100.0	700.0	500.0	1100.0	700.0	510.0	
1200.0	700.0	500.0	1200.0	700.0	510.0	
1300.0	700.0	500.0	1300.0	700.0	510.0	
1400.0	700.0	500.0	1400.0	700.0	510.0	
1500.0	700.0	500.0	1500.0	700.0	510.0	
1600.0	700.0	500.0	1600.0	700.0	510.0	
1700.0	700.0	500.0	1700.0	700.0	510.0	
1800.0	700.0	500.0	1800.0	700.0	510.0	
1900.0	700.0	500.0	1900.0	700.0	510.0	
2000.0	700.0	500.0	2000.0	700.0	510.0	
2100.0	700.0	500.0	2100.0	700.0	510.0	
2200.0	700.0	500.0	2200.0	700.0	510.0	
2300.0	700.0	500.0	2300.0	700.0	510.0	
2400.0	700.0	500.0	2400.0	700.0	510.0	
2500.0	700.0	500.0	2500.0	700.0	510.0	
2600.0	700.0	500.0	2600.0	700.0	510.0	
2700.0	700.0	500.0	2700.0	700.0	510.0	
2800.0	700.0	500.0	2800.0	700.0	510.0	
2900.0	700.0	500.0	2900.0	700.0	510.0	
3000.0	700.0	500.0	3000.0	700.0	510.0	
3100.0	700.0	500.0	3100.0	700.0	510.0	
3200.0	700.0	500.0	3200.0	700.0	510.0	
3300.0	700.0	500.0	3300.0	700.0	510.0	
3400.0	700.0	500.0	3400.0	700.0	510.0	
3500.0	700.0	500.0	3500.0	700.0	510.0	
3600.0	700.0	500.0	3600.0	700.0	510.0	
3700.0	700.0	500.0	3700.0	700.0	510.0	
3800.0	700.0	500.0	3800.0	700.0	510.0	
3900.0	700.0	500.0	3900.0	700.0	510.0	
4000.0	700.0	500.0	4000.0	700.0	510.0	
4100.0	700.0	500.0	4100.0	700.0	510.0	
4200.0	700.0	500.0	4200.0	700.0	510.0	
4300.0	700.0	500.0	4300.0	700.0	510.0	
4400.0	700.0	500.0	4400.0	700.0	510.0	
4500.0	700.0	500.0	4500.0	700.0	510.0	
4600.0	700.0	500.0	4600.0	700.0	510.0	
4700.0	700.0	500.0	4700.0	700.0	510.0	
4800.0	700.0	500.0	4800.0	700.0	510.0	
4900.0	700.0	500.0	4900.0	700.0	510.0	
5000.0	700.0	500.0	5000.0	700.0	510.0	
5100.0	700.0	500.0	5100.0	700.0	510.0	
5200.0	700.0	500.0	5200.0	700.0	510.0	
5300.0	700.0	500.0	5300.0	700.0	510.0	
5400.0	700.0	500.0	5400.0	700.0	510.0	
5500.0	700.0	500.0	5500.0	700.0	510.0	
5600.0	700.0	500.0	5600.0	700.0	510.0	
5700.0	700.0	500.0	5700.0	700.0	510.0	
5800.0	700.0	500.0	5800.0	700.0	510.0	
5900.0	700.0	500.0	5900.0	700.0	510.0	
6000.0	700.0	500.0	6000.0	700.0	510.0	
6100.0	700.0	500.0	6100.0	700.0	510.0	
6200.0	700.0	500.0	6200.0	700.0	510.0	
6300.0	700.0	500.0	6300.0	700.0	510.0	
6400.0	700.0	500.0	6400.0	700.0	510.0	
0.0	800.0	500.0	0.0	800.0	510.0	
100.0	800.0	500.0	100.0	800.0	510.0	
200.0	800.0	500.0	200.0	800.0	510.0	
300.0	800.0	500.0	300.0	800.0	510.0	
400.0	800.0	500.0	400.0	800.0	510.0	
500.0	800.0	500.0	500.0	800.0	510.0	
600.0	800.0	500.0	600.0	800.0	510.0	
700.0	800.0	500.0	700.0	800.0	510.0	
800.0	800.0	500.0	800.0	800.0	510.0	
900.0	800.0	500.0	900.0	800.0	510.0	
1000.0	800.0	500.0	1000.0	800.0	510.0	
1100.0	800.0	500.0	1100.0	800.0	510.0	
1200.0	800.0	500.0	1200.0	800.0	510.0	
1300.0	800.0	500.0	1300.0	800.0	510.0	
1400.0	800.0	500.0	1400.0	800.0	510.0	
1500.0	800.0	500.0	1500.0	800.0	510.0	
1600.0	800.0	500.0	1600.0	800.0	510.0	
1700.0	800.0	500.0	1700.0	800.0	510.0	
1800.0	800.0	500.0	1800.0	800.0	510.0	
1900.0	800.0	500.0	1900.0	800.0	510.0	
2000.0	800.0	500.0	2000.0	800.0	510.0	
2100.0	800.0	500.0	2100.0	800.0	510.0	
2200.0	800.0	500.0	2200.0	800.0	510.0	
2300.0	800.0	500.0	2300.0	800.0	510.0	
2400.0	800.0	500.0	2400.0	800.0	510.0	
2500.0	800.0	500.0	2500.0	800.0	510.0	
2600.0	800.0	500.0	2600.0	800.0	510.0	
2700.0	800.0	500.0	2700.0	800.0	510.0	
2800.0	800.0	500.0	2800.0	800.0	510.0	
2900.0	800.0	500.0	2900.0	800.0	510.0	
3000.0	800.0	500.0	3000.0	800.0	510.0	
3100.0	800.0	500.0	3100.0	800.0	510.0	
3200.0	800.0	500.0	3200.0	800.0	510.0	
3300.0	800.0	500.0	3300.0	800.0	510.0	
3400.0	800.0	500.0	3400.0	800.0	510.0	
3500.0	800.0	500.0	3500.0	800.0	510.0	
3600.0	800.0	500.0	3600.0	800.0	510.0	
3700.0	800.0	500.0	3700.0	800.0	510.0	
3800.0	800.0	500.0	3800.0	800.0	510.0	
3900.0	800.0	500.0	3900.0	800.0	510.0	
4000.0	800.0	500.0	4000.0	800.0	510.0	
4100.0	800.0	500.0	4100.0	800.0	510.0	
4200.0	800.0	500.0	4200.0	800.0	510.0	
4300.0	800.0	500.0	4300.0	800.0	510.0	
4400.0	800.0	500.0	4400.0	800.0	510.0	
4500.0	800.0	500.0	4500.0	800.0	510.0	
4600.0	800.0	500.0	4600.0	800.0	510.0	
4700.0	800.0	500.0	4700.0	800.0	510.0	
4800.0	800.0	500.0	4800.0	800.0	510.0	
4900.0	800.0	500.0	4900.0	800.0	510.0	
5000.0	800.0	500.0	5000.0	800.0	510.0	
5100.0	800.0	500.0	5100.0	800.0	510.0	
5200.0	800.0	500.0	5200.0	800.0	510.0	
5300.0	800.0	500.0	5300.0	800.0	510.0	
5400.0	800.0	500.0	5400.0	800.0	510.0	
5500.0	800.0	500.0	5500.0	800.0	510.0	
5600.0	800.0	500.0	5600.0	800.0	510.0	
5700.0	800.0	500.0	5700.0	800.0	510.0	
5800.0	800.0	500.0	5800.0	800.0	510.0	
5900.0	800.0	500.0	5900.0	800.0	510.0	
6000.0	800.0	500.0	6000.0	800.0	510.0	
6100.0	800.0	500.0	6100.0	800.0	510.0	
6200.0	800.0	500.0	6200.0	800.0	510.0	
6300.0	800.0	500.0	6300.0	800.0	510.0	
6400.0	800.0	500.0	6400.0	800.0	510.0	
0.0	900.0	500.0	0.0	900.0	510.0	
100.0	900.0	500.0	100.0	900.0	510.0	
200.0	900.0	500.0	200.0	900.0	510.0	
300.0	900.0	500.0	300.0	900.0	510.0	
400.0	900.0	500.0	400.0	900.0	510.0	
500.0	900.0	500.0	500.0	900.0	510.0	
600.0	900.0	500.0	600.0	900.0	510.0	
700.0	900.0	500.0	700.0	900.0	510.0	
800.0	900.0	500.0	800.0	900.0	510.0	
900.0	900.0	500.0	900.0	900.0	510.0	
1000.0	900.0	500.0	1000.0	900.0	510.0	
1100.0	900.0	500.0	1100.0	900.0	510.0	
1200.0	900.0	500.0	1200.0	900.0	510.0	
1300.0	900.0	500.0	1300.0	900.0	510.0	
1400.0	900.0	500.0	1400.0	900.0	510.0	
1500.0	900.0	500.0	1500.0	900.0	510.0	
1600.0	900.0	500.0	1600.0	900.0	510.0	
1700.0	900.0	500.0	1700.0	900.0	510.0	
1800.0	900.0	500.0	1800.0	900.0	510.0	
1900.0	900.0	500.0	1900.0	900.0	510.0	
2000.0	900.0	500.0	2000.0	900.0	510.0	
2100.0	900.0	500.0	2100.0	900.0	510.0	
2200.0	900.0	500.0	2200.0	900.0	510.0	
2300.0	900.0	500.0	2300.0	900.0	510.0	
2400.0	900.0	500.0	2400.0	900.0	510.0	
2500.0	900.0	500.0	2500.0	900.0	510.0	
2600.0	900.0	500.0	2600.0	900.0	510.0	
2700.0	900.0	500.0	2700.0	900.0	510.0	
2800.0	900.0	500.0	2800.0	900.0	510.0	
2900.0	900.0	500.0	2900.0	900.0	510.0	
3000.0	900.0	500.0	3000.0	900.0	510.0	
3100.0	900.0	500.0	3100.0	900.0	510.0	
3200.0	900.0	500.0	3200.0	900.0	510.0	
3300.0	900.0	500.0	3300.0	900.0	510.0	
3400.0	900.0	500.0	3400.0	900.0	510.0	
3500.0	900.0	500.0	3500.0	900.0	510.0	
3600.0	900.0	500.0	3600.0	900.0	510.0	
3700.0	900.0	500.0	3700.0	900.0	510.0	
3800.0	900.0	500.0	3800.0	900.0	510.0	
3900.0	900.0	500.0	3900.0	900.0	510.0	
4000.0	900.0	500.0	4000.0	900.0	510.0	
4100.0	900.0	500.0	4100.0	900.0	510.0	
4200.0	900.0	500.0	4200.0	900.0	510.0	
4300.0	900.0	500.0	4300.0	900.0	510.0	
4400.0	900.0	500.0	4400.0	900.0	510.0	
4500.0	900.0	500.0	4500.0	900.0	510.0	
4600.0	900.0	500.0	4600.0	900.0	510.0	
4700.0	900.0	500.0	4700.0	900.0	510.0	
4800.0	900.0	500.0	4800.0	900.0	510.0	
4900.0	900.0	500.0	4900.0	900.0	510.0	
5000.0	900.0	500.0	5000.0	900.0	510.0	
5100.0	900.0	500.0	5100.0	900.0	510.0	
5200.0	900.0	500.0	5200.0	900.0	510.0	
5300.0	900.0	500.0	5300.0	900.0	510.0	
5400.0	900.0	500.0	5400.0	900.0	510.0	
5500.0	900.0	500.0	5500.0	900.0	510.0	
5600.0	900.0	500.0	5600.0	900.0	510.0	
5700.0	900.0	500.0	5700.0	900.0	510.0	
5800.0	900.0	500.0	5800.0	900.0	510.0	
5900.0	900.0	500.0	5900.0	900.0	510.0	
6000.0	900.0	500.0	6000.0	900.0	510.0	
6100.0	900.0	500.0	6100.0	900.0	510.0	
6200.0	900.0	500.0	6200.0	900.0	510.0	
6300.0	900.0	500.0	6300.0	900.0	510.0	
6400.0	900.0	500.0	6400.0	900.0	510.0	
0.0	1000.0	500.0	0.0	1000.0	510.0	
100.0	1000.0	500.0	100.0	1000.0	510.0	
200.0	1000.0	500.0	200.0	1000.0	510.0	
300.0	1000.0	500.0	300.0	1000.0	510.0	
400.0	1000.0	500.0	400.0	1000.0	510.0	
500.0	1000.0	500.0	500.0	1000.0	510.0	
600.0	1000.0	500.0	600.0	1000.0	510.0	
700.0	1000.0	500.0	700.0	1000.0	510.0	
800.0	1000.0	500.0	800.0	1000.0	510.0	
900.0	1000.0	500.0	900.0	1000.0	510.0	
1000.0	1000.0	500.0	1000.0	1000.0	510.0	
1100.0	1000.0	500.0	1100.0	1000.0	510.0	
1200.0	1000.0	500.0	1200.0	1000.0	510.0	
1300.0	1000.0	500.0	1300.0	1000.0	510.0	
1400.0	1000.0	500.0	1400.0	1000.0	510.0	
1500.0	1000.0	500.0	1500.0	1000.0	510.0	
1600.0	1000.0	500.0	1600.0	1000.0	510.0	
1700.0	1000.0	500.0	1700.0	1000.0	510.0	
1800.0	1000.0	500.0	1800.0	1000.0	510.0	
1900.0	1000.0	500.0	1900.0	1000.0	510.0	
2000.0	1000.0	500.0	2000.0	1000.0	510.0	
2100.0	1000.0	500.0	2100.0	1000.0	510.0	
2200.0	1000.0	500.0	2200.0	1000.0	510.0	
2300.0	1000.0	500.0	2300.0	1000.0	510.0	
2400.0	1000.0	500.0	2400.0	1000.0	510.0	
2500.0	1000.0	500.0	2500.0	1000.0	510.0	
2600.0	1000.0	500.0	2600.0	1000.0	510.0	
2700.0	1000.0	500.0	2700.0	1000.0	510.0	
2800.0	1000.0	500.0	2800.0	1000.0	510.0	
2900.0	1000.0	500.0	2900.0	1000.0	510.0	
3000.0	1000.0	500.0	3000.0	1000.0	510.0	
3100.0	1000.0	500.0	3100.0	1000.0	510.0	
3200.0	1000.0	500.0	3200.0	1000.0	510.0	
3300.0	1000.0	500.0	3300.0	1000.0	510.0	
3400.0	1000.0	500.0	3400.0	1000.0	510.0	
3500.0	1000.0	500.0	3500.0	1000.0	510.0	
3600.0	1000.0	500.0	3600.0	1000.0	510.0	
3700.0	1000.0	500.0	3700.0	1000.0	510.0	
3800.0	1000.0	500.0	3800.0	1000.0	510.0	
3900.0	1000.0	500.0	3900.0	1000.0	510.0	
4000.0	1000.0	500.0	4000.0	1000.0	510.0	
4100.0	1000.0	500.0	4100.0	1000.0	510.0	
4200.0	1000.0	500.0	4200.0	1000.0	510.0	
4300.0	1000.0	500.0	4300.0	1000.0	510.0	
4400.0	1000.0	500.0	4400.0	1000.0	510.0	
4500.0	1000.0	500.0	4500.0	1000.0	510.0	
4600.0	1000.0	500.0	4600.0	1000.0	510.0	
4700.0	1000.0	500.0	4700.0	1000.0	510.0	
4800.0	1000.0	500.0	4800.0	1000.0	510.0	
4900.0	1000.0	500.0	4900.0	1000.0	510.0	
5000.0	1000.0	500.0	5000.0	1000.0	510.0	
5100.0	1000.0	500.0	5100.0	1000.0	510.0	
5200.0	1000.0	500.0	5200.0	1000.0	510.0	
5300.0	1000.0	500.0	5300.0	1000.0	510.0	
5400.0	1000.0	500.0	5400.0	1000.0	510.0	
5500.0	1000.0	500.0	5500.0	1000.0	510.0	
5600.0	1000.0	500.0	5600.0	1000.0	510.0	
5700.0	1000.0	500.0	5700.0	1000.0	510.0	
5800.0	1000.0	500.0	5800.0	1000.0	510.0	
5900.0	1000.0	500.0	5900.0	1000.0	510.0	
6000.0	1000.0	500.0	6000.0	1000.0	510.0	
6100.0	1000.0	500.0	6100.0	1000.0	510.0	
6200.0	1000.0	500.0	6200.0	1000.0	510.0	
6300.0	1000.0	500.0	6300.0	1000.0	510.0	
6400.0	1000.0	500.0	6400.0	1000.0	510.0	
0.0	1100.0	500.0	0.0	1100.0	510.0	
100.0	1100.0	500.0	100.0	1100.0	510.0	
200.0	1100.0	500.0	200.0	1100.0	510.0	
300.0	1100.0	500.0	300.0	1100.0	510.0	
400.0	1100.0	500.0	400.0	1100.0	510.0	
500.0	1100.0	500.0	500.0	1100.0	510.0	
600.0	1100.0	500.0	600.0	1100.0	510.0	
700.0	1100.0	500.0	700.0	1100.0	510.0	
800.0	1100.0	500.0	800.0	1100.0	510.0	
900.0	1100.0	500.0	900.0	1100.0	510.0	
1000.0	1100.0	500.0	1000.0	1100.0	510.0	
1100.0	1100.0	500.0	1100.0	1100.0	510.0	
1200.0	1100.0	500.0	1200.0	1100.0	510.0	
1300.0	1100.0	500.0	1300.0	1100.0	510.0	
1400.0	1100.0	500.0	1400.0	1100.0	510.0	
1500.0	1100.0	500.0	1500.0	1100.0	510.0	
1600.0	1100.0	500.0	1600.0	1100.0	510.0	
1700.0	1100.0	500.0	1700.0	1100.0	510.0	
1800.0	1100.0	500.0	1800.0	1100.0	510.0	
1900.0	1100.0	500.0	1900.0	1100.0	510.0	
2000.0	1100.0	500.0	2000.0	1100.0	510.0	
2100.0	1100.0	500.0	2100.0	1100.0	510.0	
2200.0	1100.0	500.0	2200.0	1100.0	510.0	
2300.0	1100.0	500.0	2300.0	1100.0	510.0	
2400.0	1100.0	500.0	2400.0	1100.0	510.0	
2500.0	1100.0	500.0	2500.0	1100.0	510.0	
2600.0	1100.0	500.0	2600.0	1100.0	510.0	
2700.0	1100.0	500.0	2700.0	1100.0	510.0	
2800.0	1100.0	500.0	2800.0	1100.0	510.0	
2900.0	1100.0	500.0	2900.0	1100.0	510.0	
3000.0	1100.0	500.0	3000.0	1100.0	510.0	
3100.0	1100.0	500.0	3100.0	1100.0	510.0	
3200.0	1100.0	500.0	3200.0	1100.0	510.0	
3300.0	1100.0	500.0	3300.0	1100.0	510.0	
3400.0	1100.0	500.0	3400.0	1100.0	510.0	
3500.0	1100.0	500.0	3500.0	1100.0	510.0	
3600.0	1100.0	500.0	3600.0	1100.0	510.0	
3700.0	1100.0	500.0	3700.0	1100.0	510.0	
3800.0	1100.0	500.0	3800.0	1100.0	510.0	
3900.0	1100.0	500.0	3900.0	1100.0	510.0	
4000.0	1100.0	500.0	4000.0	1100.0	510.0	
4100.0	1100.0	500.0	4100.0	1100.0	510.0	
4200.0	1100.0	500.0	4200.0	1100.0	510.0	
4300.0	1100.0	500.0	4300.0	1100.0	510.0	
4400.0	1100.0	500.0	4400.0	1100.0	510.0	
4500.0	1100.0	500.0	4500.0	1100.0	510.0	
4600.0	1100.0	500.0	4600.0	1100.0	510.0	
4700.0	1100.0	500.0	4700.0	1100.0	510.0	
4800.0	1100.0	500.0	4800.0	1100.0	510.0	
4900.0	1100.0	500.0	4900.0	1100.0	510.0	
5000.0	1100.0	500.0	5000.0	1100.0	510.0	
5100.0	1100.0	500.0	5100.0	1100.0	510.0	
5200.0	1100.0	500.0	5200.0	1100.0	510.0	
5300.0	1100.0	500.0	5300.0	1100.0	510.0	
5400.0	1100.0	500.0	5400.0	1100.0	510.0	
5500.0	1100.0	500.0	5500.0	1100.0	510.0	
5600.0	1100.0	500.0	5600.0	1100.0	510.0	
5700.0	1100.0	500.0	5700.0	1100.0	510.0	
5800.0	1100.0	500.0	5800.0	1100.0	510.0	
5900.0	1100.0	500.0	5900.0	1100.0	510.0	
6000.0	1100.0	500.0	6000.0	1100.0	510.0	